+ 1 /NodeList/1/DeviceList/1/$ns3::PointToPointNetDevice/TxQueue/Enqueue ns3::PppHeader (Point-to-Point Protocol: IP (0x0021)) ns3::Ipv4Header (tos 0x0 DSCP Default ECN Not-ECT ttl 64 id 0 protocol 6 offset (bytes) 0 flags [none] length: 56 10.1.1.2 > 10.1.1.1) ns3::TcpHeader (49153 > 50000 [ SYN ] Seq=0 Ack=0 Win=32768 ns3::TcpOptionWinScale(2) ns3::TcpOptionTS(1000;0) ns3::TcpOptionEnd(EOL))
- 1 /NodeList/1/DeviceList/1/$ns3::PointToPointNetDevice/TxQueue/Dequeue ns3::PppHeader (Point-to-Point Protocol: IP (0x0021)) ns3::Ipv4Header (tos 0x0 DSCP Default ECN Not-ECT ttl 64 id 0 protocol 6 offset (bytes) 0 flags [none] length: 56 10.1.1.2 > 10.1.1.1) ns3::TcpHeader (49153 > 50000 [ SYN ] Seq=0 Ack=0 Win=32768 ns3::TcpOptionWinScale(2) ns3::TcpOptionTS(1000;0) ns3::TcpOptionEnd(EOL))
+ 1 /NodeList/2/DeviceList/1/$ns3::PointToPointNetDevice/TxQueue/Enqueue ns3::PppHeader (Point-to-Point Protocol: IP (0x0021)) ns3::Ipv4Header (tos 0x0 DSCP Default ECN Not-ECT ttl 64 id 0 protocol 6 offset (bytes) 0 flags [none] length: 56 10.1.2.2 > 10.1.2.1) ns3::TcpHeader (49153 > 50000 [ SYN ] Seq=0 Ack=0 Win=32768 ns3::TcpOptionWinScale(2) ns3::TcpOptionTS(1000;0) ns3::TcpOptionEnd(EOL))
- 1 /NodeList/2/DeviceList/1/$ns3::PointToPointNetDevice/TxQueue/Dequeue ns3::PppHeader (Point-to-Point Protocol: IP (0x0021)) ns3::Ipv4Header (tos 0x0 DSCP Default ECN Not-ECT ttl 64 id 0 protocol 6 offset (bytes) 0 flags [none] length: 56 10.1.2.2 > 10.1.2.1) ns3::TcpHeader (49153 > 50000 [ SYN ] Seq=0 Ack=0 Win=32768 ns3::TcpOptionWinScale(2) ns3::TcpOptionTS(1000;0) ns3::TcpOptionEnd(EOL))
+ 1 /NodeList/3/DeviceList/1/$ns3::PointToPointNetDevice/TxQueue/Enqueue ns3::PppHeader (Point-to-Point Protocol: IP (0x0021)) ns3::Ipv4Header (tos 0x0 DSCP Default ECN Not-ECT ttl 64 id 0 protocol 6 offset (bytes) 0 flags [none] length: 56 10.1.3.2 > 10.1.3.1) ns3::TcpHeader (49153 > 50000 [ SYN ] Seq=0 Ack=0 Win=32768 ns3::TcpOptionWinScale(2) ns3::TcpOptionTS(1000;0) ns3::TcpOptionEnd(EOL))
- 1 /NodeList/3/DeviceList/1/$ns3::PointToPointNetDevice/TxQueue/Dequeue ns3::PppHeader (Point-to-Point Protocol: IP (0x0021)) ns3::Ipv4Header (tos 0x0 DSCP Default ECN Not-ECT ttl 64 id 0 protocol 6 offset (bytes) 0 flags [none] length: 56 10.1.3.2 > 10.1.3.1) ns3::TcpHeader (49153 > 50000 [ SYN ] Seq=0 Ack=0 Win=32768 ns3::TcpOptionWinScale(2) ns3::TcpOptionTS(1000;0) ns3::TcpOptionEnd(EOL))
+ 1 /NodeList/4/DeviceList/1/$ns3::PointToPointNetDevice/TxQueue/Enqueue ns3::PppHeader (Point-to-Point Protocol: IP (0x0021)) ns3::Ipv4Header (tos 0x0 DSCP Default ECN Not-ECT ttl 64 id 0 protocol 6 offset (bytes) 0 flags [none] length: 56 10.1.4.2 > 10.1.4.1) ns3::TcpHeader (49153 > 50000 [ SYN ] Seq=0 Ack=0 Win=32768 ns3::TcpOptionWinScale(2) ns3::TcpOptionTS(1000;0) ns3::TcpOptionEnd(EOL))
- 1 /NodeList/4/DeviceList/1/$ns3::PointToPointNetDevice/TxQueue/Dequeue ns3::PppHeader (Point-to-Point Protocol: IP (0x0021)) ns3::Ipv4Header (tos 0x0 DSCP Default ECN Not-ECT ttl 64 id 0 protocol 6 offset (bytes) 0 flags [none] length: 56 10.1.4.2 > 10.1.4.1) ns3::TcpHeader (49153 > 50000 [ SYN ] Seq=0 Ack=0 Win=32768 ns3::TcpOptionWinScale(2) ns3::TcpOptionTS(1000;0) ns3::TcpOptionEnd(EOL))
+ 1 /NodeList/5/DeviceList/1/$ns3::PointToPointNetDevice/TxQueue/Enqueue ns3::PppHeader (Point-to-Point Protocol: IP (0x0021)) ns3::Ipv4Header (tos 0x0 DSCP Default ECN Not-ECT ttl 64 id 0 protocol 6 offset (bytes) 0 flags [none] length: 56 10.1.5.2 > 10.1.5.1) ns3::TcpHeader (49153 > 50000 [ SYN ] Seq=0 Ack=0 Win=32768 ns3::TcpOptionWinScale(2) ns3::TcpOptionTS(1000;0) ns3::TcpOptionEnd(EOL))
- 1 /NodeList/5/DeviceList/1/$ns3::PointToPointNetDevice/TxQueue/Dequeue ns3::PppHeader (Point-to-Point Protocol: IP (0x0021)) ns3::Ipv4Header (tos 0x0 DSCP Default ECN Not-ECT ttl 64 id 0 protocol 6 offset (bytes) 0 flags [none] length: 56 10.1.5.2 > 10.1.5.1) ns3::TcpHeader (49153 > 50000 [ SYN ] Seq=0 Ack=0 Win=32768 ns3::TcpOptionWinScale(2) ns3::TcpOptionTS(1000;0) ns3::TcpOptionEnd(EOL))
+ 1 /NodeList/6/DeviceList/1/$ns3::PointToPointNetDevice/TxQueue/Enqueue ns3::PppHeader (Point-to-Point Protocol: IP (0x0021)) ns3::Ipv4Header (tos 0x0 DSCP Default ECN Not-ECT ttl 64 id 0 protocol 6 offset (bytes) 0 flags [none] length: 56 10.1.6.2 > 10.1.6.1) ns3::TcpHeader (49153 > 50000 [ SYN ] Seq=0 Ack=0 Win=32768 ns3::TcpOptionWinScale(2) ns3::TcpOptionTS(1000;0) ns3::TcpOptionEnd(EOL))
- 1 /NodeList/6/DeviceList/1/$ns3::PointToPointNetDevice/TxQueue/Dequeue ns3::PppHeader (Point-to-Point Protocol: IP (0x0021)) ns3::Ipv4Header (tos 0x0 DSCP Default ECN Not-ECT ttl 64 id 0 protocol 6 offset (bytes) 0 flags [none] length: 56 10.1.6.2 > 10.1.6.1) ns3::TcpHeader (49153 > 50000 [ SYN ] Seq=0 Ack=0 Win=32768 ns3::TcpOptionWinScale(2) ns3::TcpOptionTS(1000;0) ns3::TcpOptionEnd(EOL))
+ 1 /NodeList/7/DeviceList/1/$ns3::PointToPointNetDevice/TxQueue/Enqueue ns3::PppHeader (Point-to-Point Protocol: IP (0x0021)) ns3::Ipv4Header (tos 0x0 DSCP Default ECN Not-ECT ttl 64 id 0 protocol 6 offset (bytes) 0 flags [none] length: 56 10.1.7.2 > 10.1.7.1) ns3::TcpHeader (49153 > 50000 [ SYN ] Seq=0 Ack=0 Win=32768 ns3::TcpOptionWinScale(2) ns3::TcpOptionTS(1000;0) ns3::TcpOptionEnd(EOL))
- 1 /NodeList/7/DeviceList/1/$ns3::PointToPointNetDevice/TxQueue/Dequeue ns3::PppHeader (Point-to-Point Protocol: IP (0x0021)) ns3::Ipv4Header (tos 0x0 DSCP Default ECN Not-ECT ttl 64 id 0 protocol 6 offset (bytes) 0 flags [none] length: 56 10.1.7.2 > 10.1.7.1) ns3::TcpHeader (49153 > 50000 [ SYN ] Seq=0 Ack=0 Win=32768 ns3::TcpOptionWinScale(2) ns3::TcpOptionTS(1000;0) ns3::TcpOptionEnd(EOL))
+ 1 /NodeList/8/DeviceList/1/$ns3::PointToPointNetDevice/TxQueue/Enqueue ns3::PppHeader (Point-to-Point Protocol: IP (0x0021)) ns3::Ipv4Header (tos 0x0 DSCP Default ECN Not-ECT ttl 64 id 0 protocol 6 offset (bytes) 0 flags [none] length: 56 10.1.8.2 > 10.1.8.1) ns3::TcpHeader (49153 > 50000 [ SYN ] Seq=0 Ack=0 Win=32768 ns3::TcpOptionWinScale(2) ns3::TcpOptionTS(1000;0) ns3::TcpOptionEnd(EOL))
- 1 /NodeList/8/DeviceList/1/$ns3::PointToPointNetDevice/TxQueue/Dequeue ns3::PppHeader (Point-to-Point Protocol: IP (0x0021)) ns3::Ipv4Header (tos 0x0 DSCP Default ECN Not-ECT ttl 64 id 0 protocol 6 offset (bytes) 0 flags [none] length: 56 10.1.8.2 > 10.1.8.1) ns3::TcpHeader (49153 > 50000 [ SYN ] Seq=0 Ack=0 Win=32768 ns3::TcpOptionWinScale(2) ns3::TcpOptionTS(1000;0) ns3::TcpOptionEnd(EOL))
+ 1 /NodeList/9/DeviceList/1/$ns3::PointToPointNetDevice/TxQueue/Enqueue ns3::PppHeader (Point-to-Point Protocol: IP (0x0021)) ns3::Ipv4Header (tos 0x0 DSCP Default ECN Not-ECT ttl 64 id 0 protocol 6 offset (bytes) 0 flags [none] length: 56 10.1.9.2 > 10.1.9.1) ns3::TcpHeader (49153 > 50000 [ SYN ] Seq=0 Ack=0 Win=32768 ns3::TcpOptionWinScale(2) ns3::TcpOptionTS(1000;0) ns3::TcpOptionEnd(EOL))
- 1 /NodeList/9/DeviceList/1/$ns3::PointToPointNetDevice/TxQueue/Dequeue ns3::PppHeader (Point-to-Point Protocol: IP (0x0021)) ns3::Ipv4Header (tos 0x0 DSCP Default ECN Not-ECT ttl 64 id 0 protocol 6 offset (bytes) 0 flags [none] length: 56 10.1.9.2 > 10.1.9.1) ns3::TcpHeader (49153 > 50000 [ SYN ] Seq=0 Ack=0 Win=32768 ns3::TcpOptionWinScale(2) ns3::TcpOptionTS(1000;0) ns3::TcpOptionEnd(EOL))
+ 1 /NodeList/10/DeviceList/1/$ns3::PointToPointNetDevice/TxQueue/Enqueue ns3::PppHeader (Point-to-Point Protocol: IP (0x0021)) ns3::Ipv4Header (tos 0x0 DSCP Default ECN Not-ECT ttl 64 id 0 protocol 6 offset (bytes) 0 flags [none] length: 56 10.1.10.2 > 10.1.10.1) ns3::TcpHeader (49153 > 50000 [ SYN ] Seq=0 Ack=0 Win=32768 ns3::TcpOptionWinScale(2) ns3::TcpOptionTS(1000;0) ns3::TcpOptionEnd(EOL))
- 1 /NodeList/10/DeviceList/1/$ns3::PointToPointNetDevice/TxQueue/Dequeue ns3::PppHeader (Point-to-Point Protocol: IP (0x0021)) ns3::Ipv4Header (tos 0x0 DSCP Default ECN Not-ECT ttl 64 id 0 protocol 6 offset (bytes) 0 flags [none] length: 56 10.1.10.2 > 10.1.10.1) ns3::TcpHeader (49153 > 50000 [ SYN ] Seq=0 Ack=0 Win=32768 ns3::TcpOptionWinScale(2) ns3::TcpOptionTS(1000;0) ns3::TcpOptionEnd(EOL))
+ 1 /NodeList/11/DeviceList/1/$ns3::PointToPointNetDevice/TxQueue/Enqueue ns3::PppHeader (Point-to-Point Protocol: IP (0x0021)) ns3::Ipv4Header (tos 0x0 DSCP Default ECN Not-ECT ttl 64 id 0 protocol 6 offset (bytes) 0 flags [none] length: 56 10.1.11.2 > 10.1.11.1) ns3::TcpHeader (49153 > 50000 [ SYN ] Seq=0 Ack=0 Win=32768 ns3::TcpOptionWinScale(2) ns3::TcpOptionTS(1000;0) ns3::TcpOptionEnd(EOL))
- 1 /NodeList/11/DeviceList/1/$ns3::PointToPointNetDevice/TxQueue/Dequeue ns3::PppHeader (Point-to-Point Protocol: IP (0x0021)) ns3::Ipv4Header (tos 0x0 DSCP Default ECN Not-ECT ttl 64 id 0 protocol 6 offset (bytes) 0 flags [none] length: 56 10.1.11.2 > 10.1.11.1) ns3::TcpHeader (49153 > 50000 [ SYN ] Seq=0 Ack=0 Win=32768 ns3::TcpOptionWinScale(2) ns3::TcpOptionTS(1000;0) ns3::TcpOptionEnd(EOL))
r 1.00209 /NodeList/0/DeviceList/1/$ns3::PointToPointNetDevice/MacRx ns3::PppHeader (Point-to-Point Protocol: IP (0x0021)) ns3::Ipv4Header (tos 0x0 DSCP Default ECN Not-ECT ttl 64 id 0 protocol 6 offset (bytes) 0 flags [none] length: 56 10.1.1.2 > 10.1.1.1) ns3::TcpHeader (49153 > 50000 [ SYN ] Seq=0 Ack=0 Win=32768 ns3::TcpOptionWinScale(2) ns3::TcpOptionTS(1000;0) ns3::TcpOptionEnd(EOL))
r 1.00209 /NodeList/0/DeviceList/2/$ns3::PointToPointNetDevice/MacRx ns3::PppHeader (Point-to-Point Protocol: IP (0x0021)) ns3::Ipv4Header (tos 0x0 DSCP Default ECN Not-ECT ttl 64 id 0 protocol 6 offset (bytes) 0 flags [none] length: 56 10.1.2.2 > 10.1.2.1) ns3::TcpHeader (49153 > 50000 [ SYN ] Seq=0 Ack=0 Win=32768 ns3::TcpOptionWinScale(2) ns3::TcpOptionTS(1000;0) ns3::TcpOptionEnd(EOL))
r 1.00209 /NodeList/0/DeviceList/3/$ns3::PointToPointNetDevice/MacRx ns3::PppHeader (Point-to-Point Protocol: IP (0x0021)) ns3::Ipv4Header (tos 0x0 DSCP Default ECN Not-ECT ttl 64 id 0 protocol 6 offset (bytes) 0 flags [none] length: 56 10.1.3.2 > 10.1.3.1) ns3::TcpHeader (49153 > 50000 [ SYN ] Seq=0 Ack=0 Win=32768 ns3::TcpOptionWinScale(2) ns3::TcpOptionTS(1000;0) ns3::TcpOptionEnd(EOL))
r 1.00209 /NodeList/0/DeviceList/4/$ns3::PointToPointNetDevice/MacRx ns3::PppHeader (Point-to-Point Protocol: IP (0x0021)) ns3::Ipv4Header (tos 0x0 DSCP Default ECN Not-ECT ttl 64 id 0 protocol 6 offset (bytes) 0 flags [none] length: 56 10.1.4.2 > 10.1.4.1) ns3::TcpHeader (49153 > 50000 [ SYN ] Seq=0 Ack=0 Win=32768 ns3::TcpOptionWinScale(2) ns3::TcpOptionTS(1000;0) ns3::TcpOptionEnd(EOL))
r 1.00209 /NodeList/0/DeviceList/5/$ns3::PointToPointNetDevice/MacRx ns3::PppHeader (Point-to-Point Protocol: IP (0x0021)) ns3::Ipv4Header (tos 0x0 DSCP Default ECN Not-ECT ttl 64 id 0 protocol 6 offset (bytes) 0 flags [none] length: 56 10.1.5.2 > 10.1.5.1) ns3::TcpHeader (49153 > 50000 [ SYN ] Seq=0 Ack=0 Win=32768 ns3::TcpOptionWinScale(2) ns3::TcpOptionTS(1000;0) ns3::TcpOptionEnd(EOL))
r 1.00209 /NodeList/0/DeviceList/6/$ns3::PointToPointNetDevice/MacRx ns3::PppHeader (Point-to-Point Protocol: IP (0x0021)) ns3::Ipv4Header (tos 0x0 DSCP Default ECN Not-ECT ttl 64 id 0 protocol 6 offset (bytes) 0 flags [none] length: 56 10.1.6.2 > 10.1.6.1) ns3::TcpHeader (49153 > 50000 [ SYN ] Seq=0 Ack=0 Win=32768 ns3::TcpOptionWinScale(2) ns3::TcpOptionTS(1000;0) ns3::TcpOptionEnd(EOL))
r 1.00209 /NodeList/0/DeviceList/7/$ns3::PointToPointNetDevice/MacRx ns3::PppHeader (Point-to-Point Protocol: IP (0x0021)) ns3::Ipv4Header (tos 0x0 DSCP Default ECN Not-ECT ttl 64 id 0 protocol 6 offset (bytes) 0 flags [none] length: 56 10.1.7.2 > 10.1.7.1) ns3::TcpHeader (49153 > 50000 [ SYN ] Seq=0 Ack=0 Win=32768 ns3::TcpOptionWinScale(2) ns3::TcpOptionTS(1000;0) ns3::TcpOptionEnd(EOL))
r 1.00209 /NodeList/0/DeviceList/8/$ns3::PointToPointNetDevice/MacRx ns3::PppHeader (Point-to-Point Protocol: IP (0x0021)) ns3::Ipv4Header (tos 0x0 DSCP Default ECN Not-ECT ttl 64 id 0 protocol 6 offset (bytes) 0 flags [none] length: 56 10.1.8.2 > 10.1.8.1) ns3::TcpHeader (49153 > 50000 [ SYN ] Seq=0 Ack=0 Win=32768 ns3::TcpOptionWinScale(2) ns3::TcpOptionTS(1000;0) ns3::TcpOptionEnd(EOL))
r 1.00209 /NodeList/0/DeviceList/9/$ns3::PointToPointNetDevice/MacRx ns3::PppHeader (Point-to-Point Protocol: IP (0x0021)) ns3::Ipv4Header (tos 0x0 DSCP Default ECN Not-ECT ttl 64 id 0 protocol 6 offset (bytes) 0 flags [none] length: 56 10.1.9.2 > 10.1.9.1) ns3::TcpHeader (49153 > 50000 [ SYN ] Seq=0 Ack=0 Win=32768 ns3::TcpOptionWinScale(2) ns3::TcpOptionTS(1000;0) ns3::TcpOptionEnd(EOL))
r 1.00209 /NodeList/0/DeviceList/10/$ns3::PointToPointNetDevice/MacRx ns3::PppHeader (Point-to-Point Protocol: IP (0x0021)) ns3::Ipv4Header (tos 0x0 DSCP Default ECN Not-ECT ttl 64 id 0 protocol 6 offset (bytes) 0 flags [none] length: 56 10.1.10.2 > 10.1.10.1) ns3::TcpHeader (49153 > 50000 [ SYN ] Seq=0 Ack=0 Win=32768 ns3::TcpOptionWinScale(2) ns3::TcpOptionTS(1000;0) ns3::TcpOptionEnd(EOL))
r 1.00209 /NodeList/0/DeviceList/11/$ns3::PointToPointNetDevice/MacRx ns3::PppHeader (Point-to-Point Protocol: IP (0x0021)) ns3::Ipv4Header (tos 0x0 DSCP Default ECN Not-ECT ttl 64 id 0 protocol 6 offset (bytes) 0 flags [none] length: 56 10.1.11.2 > 10.1.11.1) ns3::TcpHeader (49153 > 50000 [ SYN ] Seq=0 Ack=0 Win=32768 ns3::TcpOptionWinScale(2) ns3::TcpOptionTS(1000;0) ns3::TcpOptionEnd(EOL))
+ 1.00209 /NodeList/0/DeviceList/1/$ns3::PointToPointNetDevice/TxQueue/Enqueue ns3::PppHeader (Point-to-Point Protocol: IP (0x0021)) ns3::Ipv4Header (tos 0x0 DSCP Default ECN Not-ECT ttl 64 id 0 protocol 6 offset (bytes) 0 flags [none] length: 56 10.1.1.1 > 10.1.1.2) ns3::TcpHeader (50000 > 49153 [ SYN  ACK ] Seq=0 Ack=1 Win=32768 ns3::TcpOptionWinScale(2) ns3::TcpOptionTS(1002;1000) ns3::TcpOptionEnd(EOL))
- 1.00209 /NodeList/0/DeviceList/1/$ns3::PointToPointNetDevice/TxQueue/Dequeue ns3::PppHeader (Point-to-Point Protocol: IP (0x0021)) ns3::Ipv4Header (tos 0x0 DSCP Default ECN Not-ECT ttl 64 id 0 protocol 6 offset (bytes) 0 flags [none] length: 56 10.1.1.1 > 10.1.1.2) ns3::TcpHeader (50000 > 49153 [ SYN  ACK ] Seq=0 Ack=1 Win=32768 ns3::TcpOptionWinScale(2) ns3::TcpOptionTS(1002;1000) ns3::TcpOptionEnd(EOL))
+ 1.00209 /NodeList/0/DeviceList/2/$ns3::PointToPointNetDevice/TxQueue/Enqueue ns3::PppHeader (Point-to-Point Protocol: IP (0x0021)) ns3::Ipv4Header (tos 0x0 DSCP Default ECN Not-ECT ttl 64 id 0 protocol 6 offset (bytes) 0 flags [none] length: 56 10.1.2.1 > 10.1.2.2) ns3::TcpHeader (50000 > 49153 [ SYN  ACK ] Seq=0 Ack=1 Win=32768 ns3::TcpOptionWinScale(2) ns3::TcpOptionTS(1002;1000) ns3::TcpOptionEnd(EOL))
- 1.00209 /NodeList/0/DeviceList/2/$ns3::PointToPointNetDevice/TxQueue/Dequeue ns3::PppHeader (Point-to-Point Protocol: IP (0x0021)) ns3::Ipv4Header (tos 0x0 DSCP Default ECN Not-ECT ttl 64 id 0 protocol 6 offset (bytes) 0 flags [none] length: 56 10.1.2.1 > 10.1.2.2) ns3::TcpHeader (50000 > 49153 [ SYN  ACK ] Seq=0 Ack=1 Win=32768 ns3::TcpOptionWinScale(2) ns3::TcpOptionTS(1002;1000) ns3::TcpOptionEnd(EOL))
+ 1.00209 /NodeList/0/DeviceList/3/$ns3::PointToPointNetDevice/TxQueue/Enqueue ns3::PppHeader (Point-to-Point Protocol: IP (0x0021)) ns3::Ipv4Header (tos 0x0 DSCP Default ECN Not-ECT ttl 64 id 0 protocol 6 offset (bytes) 0 flags [none] length: 56 10.1.3.1 > 10.1.3.2) ns3::TcpHeader (50000 > 49153 [ SYN  ACK ] Seq=0 Ack=1 Win=32768 ns3::TcpOptionWinScale(2) ns3::TcpOptionTS(1002;1000) ns3::TcpOptionEnd(EOL))
- 1.00209 /NodeList/0/DeviceList/3/$ns3::PointToPointNetDevice/TxQueue/Dequeue ns3::PppHeader (Point-to-Point Protocol: IP (0x0021)) ns3::Ipv4Header (tos 0x0 DSCP Default ECN Not-ECT ttl 64 id 0 protocol 6 offset (bytes) 0 flags [none] length: 56 10.1.3.1 > 10.1.3.2) ns3::TcpHeader (50000 > 49153 [ SYN  ACK ] Seq=0 Ack=1 Win=32768 ns3::TcpOptionWinScale(2) ns3::TcpOptionTS(1002;1000) ns3::TcpOptionEnd(EOL))
+ 1.00209 /NodeList/0/DeviceList/4/$ns3::PointToPointNetDevice/TxQueue/Enqueue ns3::PppHeader (Point-to-Point Protocol: IP (0x0021)) ns3::Ipv4Header (tos 0x0 DSCP Default ECN Not-ECT ttl 64 id 0 protocol 6 offset (bytes) 0 flags [none] length: 56 10.1.4.1 > 10.1.4.2) ns3::TcpHeader (50000 > 49153 [ SYN  ACK ] Seq=0 Ack=1 Win=32768 ns3::TcpOptionWinScale(2) ns3::TcpOptionTS(1002;1000) ns3::TcpOptionEnd(EOL))
- 1.00209 /NodeList/0/DeviceList/4/$ns3::PointToPointNetDevice/TxQueue/Dequeue ns3::PppHeader (Point-to-Point Protocol: IP (0x0021)) ns3::Ipv4Header (tos 0x0 DSCP Default ECN Not-ECT ttl 64 id 0 protocol 6 offset (bytes) 0 flags [none] length: 56 10.1.4.1 > 10.1.4.2) ns3::TcpHeader (50000 > 49153 [ SYN  ACK ] Seq=0 Ack=1 Win=32768 ns3::TcpOptionWinScale(2) ns3::TcpOptionTS(1002;1000) ns3::TcpOptionEnd(EOL))
+ 1.00209 /NodeList/0/DeviceList/5/$ns3::PointToPointNetDevice/TxQueue/Enqueue ns3::PppHeader (Point-to-Point Protocol: IP (0x0021)) ns3::Ipv4Header (tos 0x0 DSCP Default ECN Not-ECT ttl 64 id 0 protocol 6 offset (bytes) 0 flags [none] length: 56 10.1.5.1 > 10.1.5.2) ns3::TcpHeader (50000 > 49153 [ SYN  ACK ] Seq=0 Ack=1 Win=32768 ns3::TcpOptionWinScale(2) ns3::TcpOptionTS(1002;1000) ns3::TcpOptionEnd(EOL))
- 1.00209 /NodeList/0/DeviceList/5/$ns3::PointToPointNetDevice/TxQueue/Dequeue ns3::PppHeader (Point-to-Point Protocol: IP (0x0021)) ns3::Ipv4Header (tos 0x0 DSCP Default ECN Not-ECT ttl 64 id 0 protocol 6 offset (bytes) 0 flags [none] length: 56 10.1.5.1 > 10.1.5.2) ns3::TcpHeader (50000 > 49153 [ SYN  ACK ] Seq=0 Ack=1 Win=32768 ns3::TcpOptionWinScale(2) ns3::TcpOptionTS(1002;1000) ns3::TcpOptionEnd(EOL))
+ 1.00209 /NodeList/0/DeviceList/6/$ns3::PointToPointNetDevice/TxQueue/Enqueue ns3::PppHeader (Point-to-Point Protocol: IP (0x0021)) ns3::Ipv4Header (tos 0x0 DSCP Default ECN Not-ECT ttl 64 id 0 protocol 6 offset (bytes) 0 flags [none] length: 56 10.1.6.1 > 10.1.6.2) ns3::TcpHeader (50000 > 49153 [ SYN  ACK ] Seq=0 Ack=1 Win=32768 ns3::TcpOptionWinScale(2) ns3::TcpOptionTS(1002;1000) ns3::TcpOptionEnd(EOL))
- 1.00209 /NodeList/0/DeviceList/6/$ns3::PointToPointNetDevice/TxQueue/Dequeue ns3::PppHeader (Point-to-Point Protocol: IP (0x0021)) ns3::Ipv4Header (tos 0x0 DSCP Default ECN Not-ECT ttl 64 id 0 protocol 6 offset (bytes) 0 flags [none] length: 56 10.1.6.1 > 10.1.6.2) ns3::TcpHeader (50000 > 49153 [ SYN  ACK ] Seq=0 Ack=1 Win=32768 ns3::TcpOptionWinScale(2) ns3::TcpOptionTS(1002;1000) ns3::TcpOptionEnd(EOL))
+ 1.00209 /NodeList/0/DeviceList/7/$ns3::PointToPointNetDevice/TxQueue/Enqueue ns3::PppHeader (Point-to-Point Protocol: IP (0x0021)) ns3::Ipv4Header (tos 0x0 DSCP Default ECN Not-ECT ttl 64 id 0 protocol 6 offset (bytes) 0 flags [none] length: 56 10.1.7.1 > 10.1.7.2) ns3::TcpHeader (50000 > 49153 [ SYN  ACK ] Seq=0 Ack=1 Win=32768 ns3::TcpOptionWinScale(2) ns3::TcpOptionTS(1002;1000) ns3::TcpOptionEnd(EOL))
- 1.00209 /NodeList/0/DeviceList/7/$ns3::PointToPointNetDevice/TxQueue/Dequeue ns3::PppHeader (Point-to-Point Protocol: IP (0x0021)) ns3::Ipv4Header (tos 0x0 DSCP Default ECN Not-ECT ttl 64 id 0 protocol 6 offset (bytes) 0 flags [none] length: 56 10.1.7.1 > 10.1.7.2) ns3::TcpHeader (50000 > 49153 [ SYN  ACK ] Seq=0 Ack=1 Win=32768 ns3::TcpOptionWinScale(2) ns3::TcpOptionTS(1002;1000) ns3::TcpOptionEnd(EOL))
+ 1.00209 /NodeList/0/DeviceList/8/$ns3::PointToPointNetDevice/TxQueue/Enqueue ns3::PppHeader (Point-to-Point Protocol: IP (0x0021)) ns3::Ipv4Header (tos 0x0 DSCP Default ECN Not-ECT ttl 64 id 0 protocol 6 offset (bytes) 0 flags [none] length: 56 10.1.8.1 > 10.1.8.2) ns3::TcpHeader (50000 > 49153 [ SYN  ACK ] Seq=0 Ack=1 Win=32768 ns3::TcpOptionWinScale(2) ns3::TcpOptionTS(1002;1000) ns3::TcpOptionEnd(EOL))
- 1.00209 /NodeList/0/DeviceList/8/$ns3::PointToPointNetDevice/TxQueue/Dequeue ns3::PppHeader (Point-to-Point Protocol: IP (0x0021)) ns3::Ipv4Header (tos 0x0 DSCP Default ECN Not-ECT ttl 64 id 0 protocol 6 offset (bytes) 0 flags [none] length: 56 10.1.8.1 > 10.1.8.2) ns3::TcpHeader (50000 > 49153 [ SYN  ACK ] Seq=0 Ack=1 Win=32768 ns3::TcpOptionWinScale(2) ns3::TcpOptionTS(1002;1000) ns3::TcpOptionEnd(EOL))
+ 1.00209 /NodeList/0/DeviceList/9/$ns3::PointToPointNetDevice/TxQueue/Enqueue ns3::PppHeader (Point-to-Point Protocol: IP (0x0021)) ns3::Ipv4Header (tos 0x0 DSCP Default ECN Not-ECT ttl 64 id 0 protocol 6 offset (bytes) 0 flags [none] length: 56 10.1.9.1 > 10.1.9.2) ns3::TcpHeader (50000 > 49153 [ SYN  ACK ] Seq=0 Ack=1 Win=32768 ns3::TcpOptionWinScale(2) ns3::TcpOptionTS(1002;1000) ns3::TcpOptionEnd(EOL))
- 1.00209 /NodeList/0/DeviceList/9/$ns3::PointToPointNetDevice/TxQueue/Dequeue ns3::PppHeader (Point-to-Point Protocol: IP (0x0021)) ns3::Ipv4Header (tos 0x0 DSCP Default ECN Not-ECT ttl 64 id 0 protocol 6 offset (bytes) 0 flags [none] length: 56 10.1.9.1 > 10.1.9.2) ns3::TcpHeader (50000 > 49153 [ SYN  ACK ] Seq=0 Ack=1 Win=32768 ns3::TcpOptionWinScale(2) ns3::TcpOptionTS(1002;1000) ns3::TcpOptionEnd(EOL))
+ 1.00209 /NodeList/0/DeviceList/10/$ns3::PointToPointNetDevice/TxQueue/Enqueue ns3::PppHeader (Point-to-Point Protocol: IP (0x0021)) ns3::Ipv4Header (tos 0x0 DSCP Default ECN Not-ECT ttl 64 id 0 protocol 6 offset (bytes) 0 flags [none] length: 56 10.1.10.1 > 10.1.10.2) ns3::TcpHeader (50000 > 49153 [ SYN  ACK ] Seq=0 Ack=1 Win=32768 ns3::TcpOptionWinScale(2) ns3::TcpOptionTS(1002;1000) ns3::TcpOptionEnd(EOL))
- 1.00209 /NodeList/0/DeviceList/10/$ns3::PointToPointNetDevice/TxQueue/Dequeue ns3::PppHeader (Point-to-Point Protocol: IP (0x0021)) ns3::Ipv4Header (tos 0x0 DSCP Default ECN Not-ECT ttl 64 id 0 protocol 6 offset (bytes) 0 flags [none] length: 56 10.1.10.1 > 10.1.10.2) ns3::TcpHeader (50000 > 49153 [ SYN  ACK ] Seq=0 Ack=1 Win=32768 ns3::TcpOptionWinScale(2) ns3::TcpOptionTS(1002;1000) ns3::TcpOptionEnd(EOL))
+ 1.00209 /NodeList/0/DeviceList/11/$ns3::PointToPointNetDevice/TxQueue/Enqueue ns3::PppHeader (Point-to-Point Protocol: IP (0x0021)) ns3::Ipv4Header (tos 0x0 DSCP Default ECN Not-ECT ttl 64 id 0 protocol 6 offset (bytes) 0 flags [none] length: 56 10.1.11.1 > 10.1.11.2) ns3::TcpHeader (50000 > 49153 [ SYN  ACK ] Seq=0 Ack=1 Win=32768 ns3::TcpOptionWinScale(2) ns3::TcpOptionTS(1002;1000) ns3::TcpOptionEnd(EOL))
- 1.00209 /NodeList/0/DeviceList/11/$ns3::PointToPointNetDevice/TxQueue/Dequeue ns3::PppHeader (Point-to-Point Protocol: IP (0x0021)) ns3::Ipv4Header (tos 0x0 DSCP Default ECN Not-ECT ttl 64 id 0 protocol 6 offset (bytes) 0 flags [none] length: 56 10.1.11.1 > 10.1.11.2) ns3::TcpHeader (50000 > 49153 [ SYN  ACK ] Seq=0 Ack=1 Win=32768 ns3::TcpOptionWinScale(2) ns3::TcpOptionTS(1002;1000) ns3::TcpOptionEnd(EOL))
r 1.00419 /NodeList/1/DeviceList/1/$ns3::PointToPointNetDevice/MacRx ns3::PppHeader (Point-to-Point Protocol: IP (0x0021)) ns3::Ipv4Header (tos 0x0 DSCP Default ECN Not-ECT ttl 64 id 0 protocol 6 offset (bytes) 0 flags [none] length: 56 10.1.1.1 > 10.1.1.2) ns3::TcpHeader (50000 > 49153 [ SYN  ACK ] Seq=0 Ack=1 Win=32768 ns3::TcpOptionWinScale(2) ns3::TcpOptionTS(1002;1000) ns3::TcpOptionEnd(EOL))
r 1.00419 /NodeList/2/DeviceList/1/$ns3::PointToPointNetDevice/MacRx ns3::PppHeader (Point-to-Point Protocol: IP (0x0021)) ns3::Ipv4Header (tos 0x0 DSCP Default ECN Not-ECT ttl 64 id 0 protocol 6 offset (bytes) 0 flags [none] length: 56 10.1.2.1 > 10.1.2.2) ns3::TcpHeader (50000 > 49153 [ SYN  ACK ] Seq=0 Ack=1 Win=32768 ns3::TcpOptionWinScale(2) ns3::TcpOptionTS(1002;1000) ns3::TcpOptionEnd(EOL))
r 1.00419 /NodeList/3/DeviceList/1/$ns3::PointToPointNetDevice/MacRx ns3::PppHeader (Point-to-Point Protocol: IP (0x0021)) ns3::Ipv4Header (tos 0x0 DSCP Default ECN Not-ECT ttl 64 id 0 protocol 6 offset (bytes) 0 flags [none] length: 56 10.1.3.1 > 10.1.3.2) ns3::TcpHeader (50000 > 49153 [ SYN  ACK ] Seq=0 Ack=1 Win=32768 ns3::TcpOptionWinScale(2) ns3::TcpOptionTS(1002;1000) ns3::TcpOptionEnd(EOL))
r 1.00419 /NodeList/4/DeviceList/1/$ns3::PointToPointNetDevice/MacRx ns3::PppHeader (Point-to-Point Protocol: IP (0x0021)) ns3::Ipv4Header (tos 0x0 DSCP Default ECN Not-ECT ttl 64 id 0 protocol 6 offset (bytes) 0 flags [none] length: 56 10.1.4.1 > 10.1.4.2) ns3::TcpHeader (50000 > 49153 [ SYN  ACK ] Seq=0 Ack=1 Win=32768 ns3::TcpOptionWinScale(2) ns3::TcpOptionTS(1002;1000) ns3::TcpOptionEnd(EOL))
r 1.00419 /NodeList/5/DeviceList/1/$ns3::PointToPointNetDevice/MacRx ns3::PppHeader (Point-to-Point Protocol: IP (0x0021)) ns3::Ipv4Header (tos 0x0 DSCP Default ECN Not-ECT ttl 64 id 0 protocol 6 offset (bytes) 0 flags [none] length: 56 10.1.5.1 > 10.1.5.2) ns3::TcpHeader (50000 > 49153 [ SYN  ACK ] Seq=0 Ack=1 Win=32768 ns3::TcpOptionWinScale(2) ns3::TcpOptionTS(1002;1000) ns3::TcpOptionEnd(EOL))
r 1.00419 /NodeList/6/DeviceList/1/$ns3::PointToPointNetDevice/MacRx ns3::PppHeader (Point-to-Point Protocol: IP (0x0021)) ns3::Ipv4Header (tos 0x0 DSCP Default ECN Not-ECT ttl 64 id 0 protocol 6 offset (bytes) 0 flags [none] length: 56 10.1.6.1 > 10.1.6.2) ns3::TcpHeader (50000 > 49153 [ SYN  ACK ] Seq=0 Ack=1 Win=32768 ns3::TcpOptionWinScale(2) ns3::TcpOptionTS(1002;1000) ns3::TcpOptionEnd(EOL))
r 1.00419 /NodeList/7/DeviceList/1/$ns3::PointToPointNetDevice/MacRx ns3::PppHeader (Point-to-Point Protocol: IP (0x0021)) ns3::Ipv4Header (tos 0x0 DSCP Default ECN Not-ECT ttl 64 id 0 protocol 6 offset (bytes) 0 flags [none] length: 56 10.1.7.1 > 10.1.7.2) ns3::TcpHeader (50000 > 49153 [ SYN  ACK ] Seq=0 Ack=1 Win=32768 ns3::TcpOptionWinScale(2) ns3::TcpOptionTS(1002;1000) ns3::TcpOptionEnd(EOL))
r 1.00419 /NodeList/8/DeviceList/1/$ns3::PointToPointNetDevice/MacRx ns3::PppHeader (Point-to-Point Protocol: IP (0x0021)) ns3::Ipv4Header (tos 0x0 DSCP Default ECN Not-ECT ttl 64 id 0 protocol 6 offset (bytes) 0 flags [none] length: 56 10.1.8.1 > 10.1.8.2) ns3::TcpHeader (50000 > 49153 [ SYN  ACK ] Seq=0 Ack=1 Win=32768 ns3::TcpOptionWinScale(2) ns3::TcpOptionTS(1002;1000) ns3::TcpOptionEnd(EOL))
r 1.00419 /NodeList/9/DeviceList/1/$ns3::PointToPointNetDevice/MacRx ns3::PppHeader (Point-to-Point Protocol: IP (0x0021)) ns3::Ipv4Header (tos 0x0 DSCP Default ECN Not-ECT ttl 64 id 0 protocol 6 offset (bytes) 0 flags [none] length: 56 10.1.9.1 > 10.1.9.2) ns3::TcpHeader (50000 > 49153 [ SYN  ACK ] Seq=0 Ack=1 Win=32768 ns3::TcpOptionWinScale(2) ns3::TcpOptionTS(1002;1000) ns3::TcpOptionEnd(EOL))
r 1.00419 /NodeList/10/DeviceList/1/$ns3::PointToPointNetDevice/MacRx ns3::PppHeader (Point-to-Point Protocol: IP (0x0021)) ns3::Ipv4Header (tos 0x0 DSCP Default ECN Not-ECT ttl 64 id 0 protocol 6 offset (bytes) 0 flags [none] length: 56 10.1.10.1 > 10.1.10.2) ns3::TcpHeader (50000 > 49153 [ SYN  ACK ] Seq=0 Ack=1 Win=32768 ns3::TcpOptionWinScale(2) ns3::TcpOptionTS(1002;1000) ns3::TcpOptionEnd(EOL))
r 1.00419 /NodeList/11/DeviceList/1/$ns3::PointToPointNetDevice/MacRx ns3::PppHeader (Point-to-Point Protocol: IP (0x0021)) ns3::Ipv4Header (tos 0x0 DSCP Default ECN Not-ECT ttl 64 id 0 protocol 6 offset (bytes) 0 flags [none] length: 56 10.1.11.1 > 10.1.11.2) ns3::TcpHeader (50000 > 49153 [ SYN  ACK ] Seq=0 Ack=1 Win=32768 ns3::TcpOptionWinScale(2) ns3::TcpOptionTS(1002;1000) ns3::TcpOptionEnd(EOL))
+ 1.00419 /NodeList/1/DeviceList/1/$ns3::PointToPointNetDevice/TxQueue/Enqueue ns3::PppHeader (Point-to-Point Protocol: IP (0x0021)) ns3::Ipv4Header (tos 0x0 DSCP Default ECN Not-ECT ttl 64 id 1 protocol 6 offset (bytes) 0 flags [none] length: 52 10.1.1.2 > 10.1.1.1) ns3::TcpHeader (49153 > 50000 [ ACK ] Seq=1 Ack=1 Win=32768 ns3::TcpOptionTS(1004;1002) ns3::TcpOptionEnd(EOL))
- 1.00419 /NodeList/1/DeviceList/1/$ns3::PointToPointNetDevice/TxQueue/Dequeue ns3::PppHeader (Point-to-Point Protocol: IP (0x0021)) ns3::Ipv4Header (tos 0x0 DSCP Default ECN Not-ECT ttl 64 id 1 protocol 6 offset (bytes) 0 flags [none] length: 52 10.1.1.2 > 10.1.1.1) ns3::TcpHeader (49153 > 50000 [ ACK ] Seq=1 Ack=1 Win=32768 ns3::TcpOptionTS(1004;1002) ns3::TcpOptionEnd(EOL))
+ 1.00419 /NodeList/2/DeviceList/1/$ns3::PointToPointNetDevice/TxQueue/Enqueue ns3::PppHeader (Point-to-Point Protocol: IP (0x0021)) ns3::Ipv4Header (tos 0x0 DSCP Default ECN Not-ECT ttl 64 id 1 protocol 6 offset (bytes) 0 flags [none] length: 52 10.1.2.2 > 10.1.2.1) ns3::TcpHeader (49153 > 50000 [ ACK ] Seq=1 Ack=1 Win=32768 ns3::TcpOptionTS(1004;1002) ns3::TcpOptionEnd(EOL))
- 1.00419 /NodeList/2/DeviceList/1/$ns3::PointToPointNetDevice/TxQueue/Dequeue ns3::PppHeader (Point-to-Point Protocol: IP (0x0021)) ns3::Ipv4Header (tos 0x0 DSCP Default ECN Not-ECT ttl 64 id 1 protocol 6 offset (bytes) 0 flags [none] length: 52 10.1.2.2 > 10.1.2.1) ns3::TcpHeader (49153 > 50000 [ ACK ] Seq=1 Ack=1 Win=32768 ns3::TcpOptionTS(1004;1002) ns3::TcpOptionEnd(EOL))
+ 1.00419 /NodeList/3/DeviceList/1/$ns3::PointToPointNetDevice/TxQueue/Enqueue ns3::PppHeader (Point-to-Point Protocol: IP (0x0021)) ns3::Ipv4Header (tos 0x0 DSCP Default ECN Not-ECT ttl 64 id 1 protocol 6 offset (bytes) 0 flags [none] length: 52 10.1.3.2 > 10.1.3.1) ns3::TcpHeader (49153 > 50000 [ ACK ] Seq=1 Ack=1 Win=32768 ns3::TcpOptionTS(1004;1002) ns3::TcpOptionEnd(EOL))
- 1.00419 /NodeList/3/DeviceList/1/$ns3::PointToPointNetDevice/TxQueue/Dequeue ns3::PppHeader (Point-to-Point Protocol: IP (0x0021)) ns3::Ipv4Header (tos 0x0 DSCP Default ECN Not-ECT ttl 64 id 1 protocol 6 offset (bytes) 0 flags [none] length: 52 10.1.3.2 > 10.1.3.1) ns3::TcpHeader (49153 > 50000 [ ACK ] Seq=1 Ack=1 Win=32768 ns3::TcpOptionTS(1004;1002) ns3::TcpOptionEnd(EOL))
+ 1.00419 /NodeList/4/DeviceList/1/$ns3::PointToPointNetDevice/TxQueue/Enqueue ns3::PppHeader (Point-to-Point Protocol: IP (0x0021)) ns3::Ipv4Header (tos 0x0 DSCP Default ECN Not-ECT ttl 64 id 1 protocol 6 offset (bytes) 0 flags [none] length: 52 10.1.4.2 > 10.1.4.1) ns3::TcpHeader (49153 > 50000 [ ACK ] Seq=1 Ack=1 Win=32768 ns3::TcpOptionTS(1004;1002) ns3::TcpOptionEnd(EOL))
- 1.00419 /NodeList/4/DeviceList/1/$ns3::PointToPointNetDevice/TxQueue/Dequeue ns3::PppHeader (Point-to-Point Protocol: IP (0x0021)) ns3::Ipv4Header (tos 0x0 DSCP Default ECN Not-ECT ttl 64 id 1 protocol 6 offset (bytes) 0 flags [none] length: 52 10.1.4.2 > 10.1.4.1) ns3::TcpHeader (49153 > 50000 [ ACK ] Seq=1 Ack=1 Win=32768 ns3::TcpOptionTS(1004;1002) ns3::TcpOptionEnd(EOL))
+ 1.00419 /NodeList/5/DeviceList/1/$ns3::PointToPointNetDevice/TxQueue/Enqueue ns3::PppHeader (Point-to-Point Protocol: IP (0x0021)) ns3::Ipv4Header (tos 0x0 DSCP Default ECN Not-ECT ttl 64 id 1 protocol 6 offset (bytes) 0 flags [none] length: 52 10.1.5.2 > 10.1.5.1) ns3::TcpHeader (49153 > 50000 [ ACK ] Seq=1 Ack=1 Win=32768 ns3::TcpOptionTS(1004;1002) ns3::TcpOptionEnd(EOL))